LAMMPS (12 Dec 2018)
OMP_NUM_THREADS environment is not set. Defaulting to 1 thread. (../comm.cpp:87)
  using 1 OpenMP thread(s) per MPI task
package omp 0
using multi-threaded neighbor list subroutines
package omp 4
set 4 OpenMP thread(s) per MPI task
using multi-threaded neighbor list subroutines
units metal
lattice fcc 3.632
Lattice spacing in x,y,z = 3.632 3.632 3.632
region box block -5 5 -5 5 -5 5
create_box 1 box
Created orthogonal box = (-18.16 -18.16 -18.16) to (18.16 18.16 18.16)
  1 by 1 by 1 MPI processor grid
create_atoms 1 box
Created 4000 atoms
  Time spent = 0 secs
pair_style lj/cut 6.0
pair_coeff * * 2.0 1.0
mass 1 63.546
velocity all create 600 32075
fix 1 all nve
thermo 100
dump    1 all atom 250 dump.indent
dump    3 all movie 100 movie.mpg type type     zoom 1.6 adiam 1.5
dump_modify 3 pad 5
run 10000
Last active /omp style is pair_style lj/cut/omp
Neighbor list info ...
  update every 1 steps, delay 10 steps, check yes
  max neighbors/atom: 2000, page size: 100000
  master list distance cutoff = 8
  ghost atom cutoff = 8
  binsize = 4, bins = 10 10 10
  1 neighbor lists, perpetual/occasional/extra = 1 0 0
  (1) pair lj/cut/omp, perpetual
      attributes: half, newton on, omp
      pair build: half/bin/atomonly/newton/omp
      stencil: half/bin/3d/newton
      bin: standard
Per MPI rank memory allocation (min/avg/max) = 7.56 | 7.56 | 7.56 Mbytes
Step Temp E_pair E_mol TotEng Press 
       0          600   -779.32976            0   -469.18297   -45050.381 
     100    2320.3173   -1667.9021            0    -468.5038   -56806.917 
     200    7545.0613   -4371.0282            0   -470.90064    8057.5567 
     300    10373.613   -5833.6531            0   -471.41486     29020.88 
     400    12630.399   -7001.3338            0   -472.53737    17532.006 
     500    14110.831   -7767.8693            0   -473.82115    31365.262 
     600    15455.481   -8463.5776            0   -474.46468    28205.231 
     700    16222.539   -8861.8186            0    -476.2043    45585.581 
     800    16508.533   -9010.0085            0   -476.56101    34982.491 
     900    17056.953   -9293.9392            0   -477.00694    47210.517 
    1000     17480.88   -9512.9557            0    -476.8909    45169.146 
    1100     17868.22   -9714.8247            0   -478.53962    45837.221 
    1200    17955.459   -9760.6794            0   -479.29928    53975.043 
    1300    18141.211   -9856.8334            0   -479.43619    63532.721 
    1400    18424.108   -10002.716            0   -479.08618    71111.991 
    1500    19017.336   -10309.791            0   -479.51484    56476.482 
    1600    19114.966   -10361.825            0   -481.08297    71839.678 
    1700    19001.052   -10302.765            0   -480.90603    70616.734 
    1800    19254.465    -10435.28            0   -482.42877    62806.608 
    1900    19890.751   -10766.836            0   -485.08194    81094.339 
    2000    19882.212   -10762.427            0   -485.08674    87844.869 
    2100    20312.726   -10985.857            0   -485.97891    109567.74 
    2200    19886.895   -10763.324            0   -483.56329    81936.951 
    2300    20214.937   -10935.989            0   -486.65904    115278.53 
    2400    20499.472   -11085.125            0    -488.7156    77080.745 
    2500    20339.293   -11003.089            0   -489.47867    81555.777 
    2600    20499.475   -11082.523            0   -486.11213    68732.561 
    2700    20326.397   -10990.076            0    -483.1319     100958.4 
    2800    20669.537   -11171.979            0   -487.66152    89836.014 
    2900    20614.782   -11142.892            0   -486.87731    76700.589 
    3000    20719.643   -11197.053            0   -486.83505    83745.897 
    3100    20504.975   -11083.456            0   -484.20277    82182.957 
    3200    20883.914   -11283.866            0   -488.73483    85636.684 
    3300    20758.095   -11219.011            0   -488.91652    92540.629 
    3400    20548.182   -11111.239            0   -489.65076    63128.842 
    3500    21013.719    -11350.44            0   -488.21042    78721.384 
    3600    21164.455   -11432.096            0   -491.94934    97524.597 
    3700    21161.889   -11428.974            0   -490.15371    62109.699 
    3800    21691.979   -11705.032            0   -492.20233    89557.029 
    3900    21478.871   -11592.435            0   -489.76359    83324.927 
    4000    21636.934   -11676.869            0   -492.49239    106884.48 
    4100    21631.518   -11671.652            0   -490.07583    105822.47 
    4200    21349.656   -11524.359            0   -488.47999     97483.14 
    4300    21854.787    -11790.14            0   -493.15359    112067.09 
    4400    21865.027   -11790.531            0   -488.25108    77130.266 
    4500    21671.734   -11692.905            0    -490.5404    94134.551 
    4600    21720.256   -11720.601            0    -493.1544    89262.555 
    4700    21800.698   -11760.847            0    -491.8194    95552.142 
    4800    21261.821   -11477.025            0   -486.54894    92374.192 
    4900    21848.352   -11783.968            0   -490.30734    114465.89 
    5000    21778.153   -11747.555            0   -490.18118    105649.12 
    5100    21792.203   -11753.326            0   -488.69021    97574.574 
    5200     21746.65   -11729.331            0   -488.24109    129232.97 
    5300    21807.606   -11761.782            0   -489.18334    113518.66 
    5400    21580.833     -11647.7            0    -492.3232    93490.335 
    5500    21411.288   -11553.876            0   -486.13901    96703.028 
    5600     22074.38     -11898.6            0   -488.10266     121543.2 
    5700    22397.295   -12069.185            0   -491.76988    123479.23 
    5800    22145.794   -11936.745            0   -489.33399    106140.69 
    5900    22038.255   -11881.124            0   -489.30059     106927.4 
    6000     21893.73    -11806.22            0   -489.10337    113010.23 
    6100    22310.612   -12020.265            0   -487.65668    97045.345 
    6200    22286.032   -12011.446            0   -491.54403    127972.22 
    6300    22568.047   -12158.057            0   -492.37857    124472.53 
    6400    22364.916   -12049.937            0   -489.25865    95457.644 
    6500    22276.656   -12005.918            0    -490.8619    113517.14 
    6600    22524.044   -12131.795            0   -488.86192    86086.505 
    6700     22641.45   -12195.615            0   -491.99308    107213.37 
    6800    22412.042     -12078.6            0    -493.5619     113693.9 
    6900    22728.763   -12240.486            0   -491.73149    94972.113 
    7000    22772.366   -12263.905            0   -492.61116    123319.98 
    7100    22891.974   -12326.262            0   -493.14208    119103.11 
    7200    22749.199    -12250.24            0   -490.92154    119117.87 
    7300    22779.598   -12270.087            0   -495.05522     108859.6 
    7400    22533.233   -12141.785            0   -494.10151    127068.82 
    7500    22623.953   -12187.958            0   -493.38089    90566.968 
    7600     23387.89   -12585.907            0   -496.44188     124629.9 
    7700    23215.436   -12499.569            0   -499.24758    119760.27 
    7800    23060.301   -12416.682            0   -496.55124    135190.35 
    7900    23445.223   -12616.012            0   -496.91041    118097.93 
    8000    23446.655   -12618.926            0   -499.08435    115330.39 
    8100    23470.391   -12629.243            0   -497.13227    110915.99 
    8200    23200.538    -12492.88            0   -500.25927    109356.03 
    8300    23399.918   -12596.167            0    -500.4846    110126.32 
    8400    23490.161   -12647.194            0   -504.86393    104644.31 
    8500    23416.868   -12608.226            0    -503.7819    108406.62 
    8600    23462.772   -12630.759            0   -502.58691    118326.16 
    8700    23368.792   -12580.322            0   -500.72877    121461.86 
    8800    23426.283   -12608.063            0   -498.75234    138873.15 
    8900    23342.658    -12561.39            0   -495.30583    116414.51 
    9000    23463.131   -12627.162            0   -498.80367    119893.25 
    9100    22903.256   -12335.537            0    -496.5849    123293.19 
    9200    23777.134   -12790.704            0   -500.03374    131936.69 
    9300    23410.505   -12601.327            0   -500.17165    129099.93 
    9400    23422.054   -12609.221            0   -502.09634    103484.14 
    9500    23741.852   -12774.888            0   -502.45606    140726.95 
    9600    23618.307   -12713.775            0   -505.20498     123361.1 
    9700    23237.295   -12508.701            0   -497.08068    106979.24 
    9800    23306.034   -12543.233            0   -496.07961    107007.57 
    9900    23314.967   -12545.742            0   -493.97184    124812.53 
   10000    23223.892   -12498.012            0   -493.31982    134590.95 
Loop time of 26.0888 on 4 procs for 10000 steps with 4000 atoms

Performance: 33.118 ns/day, 0.725 hours/ns, 383.306 timesteps/s
219.0% CPU use with 1 MPI tasks x 4 OpenMP threads

MPI task timing breakdown:
Section |  min time  |  avg time  |  max time  |%varavg| %total
---------------------------------------------------------------
Pair    | 14.136     | 14.136     | 14.136     |   0.0 | 54.18
Neigh   | 2.3135     | 2.3135     | 2.3135     |   0.0 |  8.87
Comm    | 0.58169    | 0.58169    | 0.58169    |   0.0 |  2.23
Output  | 4.0555     | 4.0555     | 4.0555     |   0.0 | 15.54
Modify  | 4.8882     | 4.8882     | 4.8882     |   0.0 | 18.74
Other   |            | 0.1138     |            |       |  0.44

Nlocal:    4000 ave 4000 max 4000 min
Histogram: 1 0 0 0 0 0 0 0 0 0
Nghost:    9201 ave 9201 max 9201 min
Histogram: 1 0 0 0 0 0 0 0 0 0
Neighs:    560480 ave 560480 max 560480 min
Histogram: 1 0 0 0 0 0 0 0 0 0

Total # of neighbors = 560480
Ave neighs/atom = 140.12
Neighbor list builds = 687
Dangerous builds = 0
Total wall time: 0:00:26
